# vtk DataFile Version 3.0
Structured Grid by matlab-interface of openEMS
ASCII
DATASET STRUCTURED_GRID
DIMENSIONS 1 37 73
POINTS 2701 double
0.000000e+00 0.000000e+00 4.689342e-07
7.590797e-03 0.000000e+00 8.676321e-02
3.013306e-02 0.000000e+00 1.708931e-01
6.694334e-02 0.000000e+00 2.498359e-01
1.169053e-01 0.000000e+00 3.211948e-01
1.785038e-01 0.000000e+00 3.828027e-01
2.498699e-01 0.000000e+00 4.327873e-01
3.288377e-01 0.000000e+00 4.696289e-01
4.130099e-01 0.000000e+00 4.922060e-01
4.998302e-01 0.000000e+00 4.998302e-01
5.866607e-01 0.000000e+00 4.922668e-01
6.708626e-01 0.000000e+00 4.697430e-01
7.498757e-01 0.000000e+00 4.329409e-01
8.212973e-01 0.000000e+00 3.829772e-01
8.829547e-01 0.000000e+00 3.213692e-01
9.329720e-01 0.000000e+00 2.499891e-01
9.698272e-01 0.000000e+00 1.710067e-01
9.923989e-01 0.000000e+00 8.682365e-02
9.999998e-01 0.000000e+00 6.123233e-17
9.923989e-01 0.000000e+00 -8.682365e-02
9.698272e-01 0.000000e+00 -1.710067e-01
9.329721e-01 0.000000e+00 -2.499891e-01
8.829547e-01 0.000000e+00 -3.213692e-01
8.212973e-01 0.000000e+00 -3.829772e-01
7.498758e-01 0.000000e+00 -4.329410e-01
6.708626e-01 0.000000e+00 -4.697431e-01
5.866608e-01 0.000000e+00 -4.922669e-01
4.998302e-01 0.000000e+00 -4.998302e-01
4.130100e-01 0.000000e+00 -4.922062e-01
3.288378e-01 0.000000e+00 -4.696290e-01
2.498700e-01 0.000000e+00 -4.327875e-01
1.785039e-01 0.000000e+00 -3.828029e-01
1.169055e-01 0.000000e+00 -3.211951e-01
6.694342e-02 0.000000e+00 -2.498362e-01
3.013314e-02 0.000000e+00 -1.708935e-01
7.590815e-03 0.000000e+00 -8.676341e-02
6.676007e-23 0.000000e+00 -5.451374e-07
0.000000e+00 0.000000e+00 4.589240e-07
7.561913e-03 6.615817e-04 8.676323e-02
3.001840e-02 2.626269e-03 1.708931e-01
6.668858e-02 5.834495e-03 2.498359e-01
1.164605e-01 1.018897e-02 3.211948e-01
1.778245e-01 1.555763e-02 3.828027e-01
2.489190e-01 2.177759e-02 4.327873e-01
3.275863e-01 2.866009e-02 4.696288e-01
4.114382e-01 3.599618e-02 4.922059e-01
4.979281e-01 4.356306e-02 4.998301e-01
5.844283e-01 5.113085e-02 4.922668e-01
6.683096e-01 5.846951e-02 4.697429e-01
7.470222e-01 6.535597e-02 4.329409e-01
8.181720e-01 7.158077e-02 3.829772e-01
8.795948e-01 7.695457e-02 3.213692e-01
9.294217e-01 8.131387e-02 2.499891e-01
9.661367e-01 8.452601e-02 1.710067e-01
9.886225e-01 8.649326e-02 8.682365e-02
9.961946e-01 8.715573e-02 6.123233e-17
9.886225e-01 8.649326e-02 -8.682365e-02
9.661367e-01 8.452601e-02 -1.710067e-01
9.294217e-01 8.131387e-02 -2.499891e-01
8.795948e-01 7.695457e-02 -3.213692e-01
8.181719e-01 7.158077e-02 -3.829772e-01
7.470222e-01 6.535598e-02 -4.329409e-01
6.683096e-01 5.846952e-02 -4.697430e-01
5.844283e-01 5.113085e-02 -4.922668e-01
4.979282e-01 4.356307e-02 -4.998302e-01
4.114383e-01 3.599619e-02 -4.922061e-01
3.275864e-01 2.866010e-02 -4.696290e-01
2.489191e-01 2.177760e-02 -4.327874e-01
1.778246e-01 1.555764e-02 -3.828029e-01
1.164606e-01 1.018898e-02 -3.211951e-01
6.668868e-02 5.834503e-03 -2.498362e-01
3.001847e-02 2.626276e-03 -1.708935e-01
7.561930e-03 6.615831e-04 -8.676341e-02
6.775914e-23 5.928157e-24 -5.554089e-07
0.000000e+00 0.000000e+00 4.405195e-07
7.475477e-03 1.318128e-03 8.676322e-02
2.967527e-02 5.232550e-03 1.708931e-01
6.592629e-02 1.162458e-02 2.498358e-01
1.151293e-01 2.030040e-02 3.211947e-01
1.757919e-01 3.099685e-02 3.828025e-01
2.460737e-01 4.338942e-02 4.327871e-01
3.238417e-01 5.710203e-02 4.696286e-01
4.067351e-01 7.171837e-02 4.922057e-01
4.922363e-01 8.679454e-02 4.998298e-01
5.777476e-01 1.018725e-01 4.922665e-01
6.606703e-01 1.164940e-01 4.697428e-01
7.384830e-01 1.302145e-01 4.329407e-01
8.088196e-01 1.426167e-01 3.829771e-01
8.695403e-01 1.533234e-01 3.213691e-01
9.187979e-01 1.620089e-01 2.499891e-01
9.550934e-01 1.684087e-01 1.710067e-01
9.773221e-01 1.723283e-01 8.682365e-02
9.848076e-01 1.736482e-01 6.123233e-17
9.773221e-01 1.723283e-01 -8.682365e-02
9.550934e-01 1.684087e-01 -1.710067e-01
9.187980e-01 1.620089e-01 -2.499891e-01
8.695404e-01 1.533234e-01 -3.213692e-01
8.088196e-01 1.426167e-01 -3.829771e-01
7.384830e-01 1.302145e-01 -4.329407e-01
6.606703e-01 1.164940e-01 -4.697428e-01
5.777477e-01 1.018725e-01 -4.922666e-01
4.922364e-01 8.679456e-02 -4.998300e-01
4.067352e-01 7.171839e-02 -4.922059e-01
3.238418e-01 5.710205e-02 -4.696288e-01
2.460738e-01 4.338945e-02 -4.327873e-01
1.757920e-01 3.099687e-02 -3.828028e-01
1.151294e-01 2.030042e-02 -3.211951e-01
6.592640e-02 1.162460e-02 -2.498362e-01
2.967534e-02 5.232563e-03 -1.708935e-01
7.475498e-03 1.318132e-03 -8.676346e-02
6.569635e-23 1.158404e-23 -5.447270e-07
0.000000e+00 0.000000e+00 4.404538e-07
7.332147e-03 1.964643e-03 8.676321e-02
2.910630e-02 7.799008e-03 1.708930e-01
6.466226e-02 1.732620e-02 2.498358e-01
1.129218e-01 3.025731e-02 3.211946e-01
1.724213e-01 4.620015e-02 3.828024e-01
2.413555e-01 6.467101e-02 4.327868e-01
3.176324e-01 8.510935e-02 4.696283e-01
3.989364e-01 1.068947e-01 4.922053e-01
4.827982e-01 1.293654e-01 4.998295e-01
5.666699e-01 1.518387e-01 4.922661e-01
6.480026e-01 1.736318e-01 4.697424e-01
7.243234e-01 1.940819e-01 4.329404e-01
7.933116e-01 2.125672e-01 3.829769e-01
8.528682e-01 2.285253e-01 3.213690e-01
9.011813e-01 2.414708e-01 2.499890e-01
9.367810e-01 2.510097e-01 1.710067e-01
9.585836e-01 2.568517e-01 8.682364e-02
9.659256e-01 2.588190e-01 6.123233e-17
9.585837e-01 2.568517e-01 -8.682365e-02
9.367811e-01 2.510097e-01 -1.710067e-01
9.011813e-01 2.414708e-01 -2.499890e-01
8.528682e-01 2.285254e-01 -3.213690e-01
7.933116e-01 2.125672e-01 -3.829769e-01
7.243235e-01 1.940819e-01 -4.329405e-01
6.480027e-01 1.736318e-01 -4.697425e-01
5.666701e-01 1.518388e-01 -4.922662e-01
4.827983e-01 1.293654e-01 -4.998296e-01
3.989365e-01 1.068947e-01 -4.922055e-01
3.176326e-01 8.510939e-02 -4.696285e-01
2.413557e-01 6.467105e-02 -4.327871e-01
1.724215e-01 4.620019e-02 -3.828027e-01
1.129220e-01 3.025735e-02 -3.211950e-01
6.466236e-02 1.732623e-02 -2.498362e-01
2.910637e-02 7.799029e-03 -1.708935e-01
7.332170e-03 1.964649e-03 -8.676348e-02
6.488483e-23 1.738584e-23 -5.485151e-07
0.000000e+00 0.000000e+00 4.435882e-07
7.133014e-03 2.596205e-03 8.676319e-02
2.831580e-02 1.030611e-02 1.708930e-01
6.290610e-02 2.289595e-02 2.498357e-01
1.098550e-01 3.998395e-02 3.211945e-01
1.677385e-01 6.105182e-02 3.828022e-01
2.348005e-01 8.546039e-02 4.327866e-01
3.090058e-01 1.124689e-01 4.696280e-01
3.881015e-01 1.412574e-01 4.922049e-01
4.696856e-01 1.709516e-01 4.998290e-01
5.512794e-01 2.006493e-01 4.922656e-01
6.304032e-01 2.294480e-01 4.697419e-01
7.046514e-01 2.564721e-01 4.329401e-01
7.717657e-01 2.808998e-01 3.829766e-01
8.297050e-01 3.019879e-01 3.213688e-01
8.767063e-01 3.190950e-01 2.499889e-01
9.113392e-01 3.317003e-01 1.710067e-01
9.325498e-01 3.394204e-01 8.682364e-02
9.396924e-01 3.420201e-01 6.123232e-17
9.325497e-01 3.394204e-01 -8.682364e-02
9.113392e-01 3.317003e-01 -1.710067e-01
8.767063e-01 3.190950e-01 -2.499889e-01
8.297051e-01 3.019879e-01 -3.213689e-01
7.717659e-01 2.808998e-01 -3.829767e-01
7.046514e-01 2.564721e-01 -4.329402e-01
6.304033e-01 2.294480e-01 -4.697421e-01
5.512796e-01 2.006494e-01 -4.922657e-01
4.696857e-01 1.709516e-01 -4.998291e-01
3.881016e-01 1.412574e-01 -4.922051e-01
3.090059e-01 1.124689e-01 -4.696282e-01
2.348006e-01 8.546044e-02 -4.327869e-01
1.677386e-01 6.105187e-02 -3.828025e-01
1.098551e-01 3.998400e-02 -3.211949e-01
6.290621e-02 2.289599e-02 -2.498361e-01
2.831589e-02 1.030614e-02 -1.708935e-01
7.133038e-03 2.596213e-03 -8.676347e-02
6.227839e-23 2.266748e-23 -5.411787e-07
0.000000e+00 0.000000e+00 4.545469e-07
6.879594e-03 3.208007e-03 8.676315e-02
2.730982e-02 1.273478e-02 1.708930e-01
6.067121e-02 2.829145e-02 2.498357e-01
1.059521e-01 4.940627e-02 3.211944e-01
1.617791e-01 7.543883e-02 3.828020e-01
2.264585e-01 1.055993e-01 4.327863e-01
2.980273e-01 1.389724e-01 4.696275e-01
3.743129e-01 1.745450e-01 4.922045e-01
4.529984e-01 2.112366e-01 4.998285e-01
5.316934e-01 2.479327e-01 4.922651e-01
6.080060e-01 2.835179e-01 4.697415e-01
6.796163e-01 3.169103e-01 4.329398e-01
7.443464e-01 3.470944e-01 3.829763e-01
8.002273e-01 3.731521e-01 3.213687e-01
8.455589e-01 3.942906e-01 2.499888e-01
8.789615e-01 4.098665e-01 1.710066e-01
8.994185e-01 4.194057e-01 8.682362e-02
9.063075e-01 4.226181e-01 6.123232e-17
8.994186e-01 4.194058e-01 -8.682363e-02
8.789616e-01 4.098665e-01 -1.710066e-01
8.455589e-01 3.942906e-01 -2.499888e-01
8.002274e-01 3.731522e-01 -3.213687e-01
7.443465e-01 3.470945e-01 -3.829764e-01
6.796164e-01 3.169103e-01 -4.329398e-01
6.080061e-01 2.835179e-01 -4.697416e-01
5.316935e-01 2.479327e-01 -4.922652e-01
4.529986e-01 2.112367e-01 -4.998286e-01
3.743131e-01 1.745450e-01 -4.922047e-01
2.980275e-01 1.389725e-01 -4.696278e-01
2.264586e-01 1.055994e-01 -4.327866e-01
1.617792e-01 7.543890e-02 -3.828023e-01
1.059522e-01 4.940633e-02 -3.211948e-01
6.067130e-02 2.829149e-02 -2.498361e-01
2.730990e-02 1.273481e-02 -1.708935e-01
6.879619e-03 3.208019e-03 -8.676346e-02
5.945768e-23 2.772557e-23 -5.356997e-07
0.000000e+00 0.000000e+00 4.647779e-07
6.573816e-03 3.795395e-03 8.676312e-02
2.609598e-02 1.506652e-02 1.708929e-01
5.797456e-02 3.347163e-02 2.498356e-01
1.012428e-01 5.845258e-02 3.211943e-01
1.545885e-01 8.925169e-02 3.828017e-01
2.163930e-01 1.249346e-01 4.327860e-01
2.847808e-01 1.644182e-01 4.696272e-01
3.576756e-01 2.065041e-01 4.922040e-01
4.328638e-01 2.499140e-01 4.998280e-01
5.080609e-01 2.933291e-01 4.922647e-01
5.809816e-01 3.354299e-01 4.697411e-01
6.494091e-01 3.749365e-01 4.329394e-01
7.112622e-01 4.106474e-01 3.829761e-01
7.646595e-01 4.414764e-01 3.213685e-01
8.079763e-01 4.664853e-01 2.499887e-01
8.398944e-01 4.849132e-01 1.710066e-01
8.594423e-01 4.961993e-01 8.682362e-02
8.660251e-01 4.999998e-01 6.123232e-17
8.594424e-01 4.961993e-01 -8.682362e-02
8.398945e-01 4.849133e-01 -1.710066e-01
8.079764e-01 4.664854e-01 -2.499888e-01
7.646596e-01 4.414764e-01 -3.213686e-01
7.112623e-01 4.106475e-01 -3.829761e-01
6.494092e-01 3.749365e-01 -4.329394e-01
5.809818e-01 3.354300e-01 -4.697412e-01
5.080610e-01 2.933292e-01 -4.922648e-01
[...]
POINT_DATA 2701
SCALARS gain double 1
LOOKUP_TABLE default
 4.68934204e-07
 8.70946335e-02
 1.73529391e-01
 2.58649202e-01
 3.41808372e-01
 4.22376023e-01
 4.99739733e-01
 5.73310994e-01
 6.42529353e-01
 7.06866587e-01
 7.65831172e-01
 8.18971984e-01
 8.65881899e-01
 9.06201322e-01
 9.39620719e-01
 9.65883708e-01
 9.84788369e-01
 9.96189667e-01
 9.99999836e-01
 9.96189698e-01
 9.84788387e-01
 9.65883768e-01
 9.39620730e-01
 9.06201317e-01
 8.65881975e-01
 8.18972036e-01
 7.65831291e-01
 7.06866691e-01
 6.42529515e-01
 5.73311171e-01
 4.99739953e-01
 4.22376272e-01
 3.41808713e-01
 2.58649497e-01
 1.73529819e-01
 8.70948367e-02
 5.45137368e-07
 4.58924027e-07
 8.70946467e-02
 1.73529395e-01
 2.58649138e-01
 3.41808378e-01
 4.22375993e-01
 4.99739687e-01
 5.73310910e-01
 6.42529205e-01
 7.06866499e-01
 7.65831118e-01
 8.18971828e-01
 8.65881825e-01
 9.06201252e-01
 9.39620746e-01
 9.65883665e-01
 9.84788309e-01
 9.96189703e-01
 9.99999853e-01
 9.96189711e-01
 9.84788381e-01
 9.65883664e-01
 9.39620745e-01
 9.06201195e-01
 8.65881896e-01
 8.18971860e-01
 7.65831153e-01
 7.06866602e-01
 6.42529367e-01
 5.73311095e-01
 4.99739882e-01
 4.22376216e-01
 3.41808651e-01
 2.58649505e-01
 1.73529799e-01
 8.70948359e-02
 5.55408857e-07
 4.40519467e-07
 8.70946441e-02
 1.73529359e-01
 2.58649072e-01
 3.41808286e-01
 4.22375848e-01
 4.99739471e-01
 5.73310671e-01
 6.42528920e-01
 7.06866130e-01
 7.65830680e-01
 8.18971506e-01
 8.65881410e-01
 9.06200948e-01
 9.39620431e-01
 9.65883523e-01
 9.84788384e-01
 9.96189689e-01
 9.99999845e-01
 9.96189694e-01
 9.84788366e-01
 9.65883629e-01
 9.39620538e-01
 9.06200943e-01
 8.65881450e-01
 8.18971588e-01
 7.65830812e-01
 7.06866298e-01
 6.42529116e-01
 5.73310884e-01
 4.99739742e-01
 4.22376130e-01
 3.41808647e-01
 2.58649497e-01
 1.73529785e-01
 8.70948869e-02
 5.44727005e-07
 4.40453756e-07
 8.70946331e-02
 1.73529344e-01
 2.58649046e-01
 3.41808161e-01
 4.22375688e-01
 4.99739176e-01
 5.73310324e-01
 6.42528437e-01
 7.06865600e-01
 7.65830055e-01
 8.18970906e-01
 8.65880844e-01
 9.06200483e-01
 9.39620161e-01
 9.65883226e-01
 9.84788237e-01
 9.96189564e-01
 9.99999780e-01
 9.96189635e-01
 9.84788287e-01
 9.65883246e-01
 9.39620186e-01
 9.06200516e-01
 8.65880901e-01
 8.18971003e-01
 7.65830249e-01
 7.06865748e-01
 6.42528702e-01
 5.73310566e-01
 4.99739514e-01
 4.22376025e-01
 3.41808539e-01
 2.58649450e-01
 1.73529803e-01
 8.70948977e-02
 5.48515070e-07
 4.43588230e-07
 8.70946090e-02
 1.73529310e-01
 2.58648967e-01
 3.41808050e-01
 4.22375451e-01
 4.99738941e-01
 5.73309935e-01
 6.42527868e-01
 7.06864901e-01
 7.65829300e-01
 8.18970087e-01
 8.65880264e-01
 9.06199802e-01
 9.39619617e-01
 9.65882975e-01
 9.84788052e-01
 9.96189545e-01
 9.99999730e-01
 9.96189516e-01
 9.84788049e-01
 9.65883052e-01
 9.39619697e-01
 9.06200006e-01
 8.65880317e-01
 8.18970302e-01
 7.65829544e-01
 7.06865104e-01
 6.42528124e-01
 5.73310139e-01
 4.99739211e-01
 4.22375819e-01
 3.41808501e-01
 2.58649397e-01
 1.73529839e-01
 8.70948929e-02
 5.41178686e-07
 4.54546927e-07
 8.70945688e-02
 1.73529305e-01
 2.58648928e-01
 3.41807934e-01
 4.22375240e-01
 4.99738534e-01
 5.73309378e-01
 6.42527281e-01
 7.06864191e-01
 7.65828614e-01
 8.18969384e-01
 8.65879512e-01
 9.06199183e-01
 9.39619151e-01
 9.65882621e-01
 9.84787891e-01
 9.96189347e-01
 9.99999702e-01
 9.96189454e-01
 9.84787981e-01
 9.65882712e-01
 9.39619251e-01
 9.06199300e-01
 8.65879584e-01
 8.18969482e-01
 7.65828743e-01
 7.06864427e-01
 6.42527584e-01
 5.73309697e-01
 4.99738890e-01
 4.22375606e-01
 3.41808346e-01
 2.58649322e-01
 1.73529826e-01
 8.70948866e-02
 5.35699657e-07
 4.64777939e-07
 8.70945389e-02
 1.73529247e-01
 2.58648861e-01
 3.41807807e-01
 4.22374992e-01
 4.99738229e-01
 5.73308935e-01
 6.42526683e-01
 7.06863557e-01
 7.65827855e-01
 8.18968610e-01
 8.65878795e-01
 9.06198638e-01
 9.39618731e-01
 9.65882296e-01
 9.84787601e-01
 9.96189314e-01
 9.99999643e-01
 9.96189346e-01
 9.84787752e-01
 9.65882424e-01
 9.39618813e-01
 9.06198708e-01
 8.65878869e-01
 8.18968784e-01
 7.65828044e-01
 7.06863770e-01
 6.42527012e-01
 5.73309216e-01
 4.99738572e-01
 4.22375377e-01
 3.41808248e-01
 2.58649319e-01
 1.73529776e-01
 8.70948911e-02
 5.34280444e-07
 4.57154888e-07
 8.70945037e-02
 1.73529211e-01
 2.58648761e-01
 3.41807702e-01
 4.22374810e-01
 4.99737943e-01
 5.73308576e-01
 6.42526208e-01
 7.06862962e-01
 7.65827262e-01
 8.18967958e-01
 8.65878094e-01
 9.06198142e-01
 9.39618360e-01
 9.65882049e-01
 9.84787462e-01
 9.96189190e-01
 9.99999556e-01
 9.96189201e-01
 9.84787531e-01
 9.65882125e-01
 9.39618463e-01
 9.06198201e-01
 8.65878342e-01
 8.18968203e-01
 7.65827513e-01
 7.06863237e-01
 6.42526591e-01
 5.73308869e-01
 4.99738316e-01
 4.22375267e-01
 3.41808171e-01
 2.58649260e-01
 1.73529782e-01
 8.70948867e-02
 5.13512497e-07
 4.88602250e-07
 8.70945187e-02
 1.73529199e-01
 2.58648715e-01
 3.41807639e-01
 4.22374695e-01
 4.99737784e-01
 5.73308331e-01
 6.42525917e-01
 7.06862648e-01
 7.65826881e-01
 8.18967656e-01
 8.65877780e-01
 9.06197799e-01
 9.39618060e-01
 9.65881871e-01
 9.84787361e-01
 9.96189205e-01
 9.99999480e-01
 9.96189216e-01
 9.84787433e-01
 9.65881951e-01
 9.39618170e-01
 9.06197908e-01
 8.65878035e-01
 8.18967804e-01
 7.65827076e-01
 7.06862896e-01
 6.42526284e-01
 5.73308611e-01
 4.99738182e-01
 4.22375137e-01
 3.41808065e-01
 2.58649248e-01
 1.73529717e-01
 8.70948883e-02
 5.70687823e-07
 4.61861480e-07
 8.70944952e-02
 1.73529142e-01
 2.58648698e-01
 3.41807589e-01
 4.22374655e-01
 4.99737744e-01
 5.73308232e-01
 6.42525795e-01
 7.06862480e-01
 7.65826815e-01
 8.18967427e-01
 8.65877658e-01
 9.06197614e-01
 9.39617993e-01
 9.65881752e-01
 9.84787367e-01
 9.96189098e-01
 9.99999513e-01
 9.96189160e-01
 9.84787337e-01
 9.65881897e-01
 9.39618122e-01
 9.06197887e-01
 8.65877845e-01
 8.18967623e-01
 7.65826950e-01
 7.06862822e-01
 6.42526221e-01
 5.73308564e-01
 4.99738110e-01
 4.22375105e-01
 3.41808082e-01
 2.58649240e-01
 1.73529740e-01
 8.70948950e-02
 5.17753493e-07
 4.55498556e-07
 8.70944888e-02
 1.73529155e-01
 2.58648715e-01
 3.41807569e-01
 4.22374682e-01
 4.99737768e-01
 5.73308343e-01
 6.42525918e-01
 7.06862613e-01
 7.65826760e-01
 8.18967558e-01
 8.65877886e-01
 9.06197812e-01
 9.39618011e-01
 9.65881866e-01
 9.84787308e-01
 9.96189175e-01
 9.99999544e-01
 9.96189237e-01
 9.84787345e-01
 9.65881961e-01
 9.39618150e-01
 9.06197984e-01
 8.65877949e-01
 8.18967792e-01
 7.65827139e-01
 7.06862888e-01
 6.42526270e-01
 5.73308628e-01
 4.99738145e-01
 4.22375133e-01
 3.41808074e-01
 2.58649246e-01
 1.73529723e-01
 8.70948456e-02
 5.39399109e-07
 4.68860703e-07
 8.70944868e-02
 1.73529127e-01
 2.58648753e-01
 3.41807627e-01
 4.22374811e-01
 4.99737880e-01
 5.73308558e-01
 6.42526213e-01
 7.06862955e-01
 7.65827238e-01
 8.18968009e-01
 8.65878211e-01
 9.06198141e-01
 9.39618279e-01
 9.65882042e-01
 9.84787521e-01
 9.96189207e-01
 9.99999656e-01
 9.96189207e-01
 9.84787590e-01
 9.65882179e-01
 9.39618501e-01
 9.06198255e-01
 8.65878346e-01
 8.18968179e-01
 7.65827446e-01
 7.06863261e-01
 6.42526556e-01
 5.73308877e-01
 4.99738294e-01
 4.22375257e-01
 3.41808148e-01
 2.58649246e-01
 1.73529731e-01
 8.70948794e-02
 5.49814458e-07
 4.17890797e-07
 8.70944648e-02
 1.73529137e-01
 2.58648749e-01
 3.41807726e-01
 4.22374941e-01
 4.99738174e-01
 5.73308878e-01
 6.42526674e-01
 7.06863479e-01
 7.65827809e-01
 8.18968584e-01
 8.65878786e-01
 9.06198583e-01
 9.39618706e-01
 9.65882273e-01
 9.84787648e-01
 9.96189334e-01
 9.99999752e-01
 9.96189427e-01
 9.84787760e-01
 9.65882428e-01
 9.39618922e-01
 9.06198792e-01
 8.65878926e-01
 8.18968804e-01
 7.65828083e-01
 7.06863815e-01
 6.42527042e-01
 5.73309227e-01
 4.99738565e-01
 4.22375393e-01
 3.41808212e-01
 2.58649290e-01
 1.73529717e-01
 8.70948524e-02
 5.37755912e-07
 4.32978339e-07
 8.70944121e-02
 1.73529140e-01
 2.58648817e-01
 3.41807830e-01
 4.22375124e-01
 4.99738449e-01
 5.73309305e-01
 6.42527214e-01
 7.06864178e-01
 7.65828516e-01
 8.18969385e-01
 8.65879523e-01
 9.06199279e-01
 9.39619139e-01
 9.65882689e-01
 9.84787906e-01
 9.96189450e-01
 9.99999857e-01
 9.96189540e-01
 9.84787974e-01
 9.65882873e-01
 9.39619308e-01
 9.06199362e-01
 8.65879671e-01
 8.18969599e-01
 7.65828771e-01
 7.06864453e-01
 6.42527561e-01
 5.73309651e-01
 4.99738852e-01
 4.22375623e-01
 3.41808291e-01
 2.58649297e-01
 1.73529728e-01
 8.70947992e-02
 6.00412777e-07
 4.35483144e-07
 8.70944256e-02
 1.73529157e-01
 2.58648826e-01
 3.41807929e-01
 4.22375295e-01
 4.99738813e-01
 5.73309849e-01
 6.42527773e-01
 7.06864859e-01
 7.65829336e-01
 8.18970110e-01
 8.65880227e-01
 9.06199867e-01
 9.39619696e-01
 9.65883017e-01
 9.84788144e-01
 9.96189558e-01
 9.99999908e-01
 9.96189749e-01
 9.84788177e-01
 9.65883081e-01
 9.39619814e-01
 9.06200047e-01
 8.65880365e-01
 8.18970350e-01
 7.65829613e-01
 7.06865151e-01
 6.42528201e-01
 5.73310092e-01
 4.99739242e-01
 4.22375764e-01
 3.41808419e-01
 2.58649329e-01
 1.73529764e-01
 8.70947858e-02
 5.64737847e-07
 4.44559940e-07
 8.70944137e-02
 1.73529161e-01
 2.58648860e-01
 3.41808041e-01
 4.22375505e-01
 4.99739095e-01
 5.73310183e-01
 6.42528341e-01
 7.06865503e-01
 7.65830026e-01
 8.18970830e-01
 8.65880880e-01
 9.06200460e-01
 9.39620085e-01
 9.65883319e-01
 9.84788279e-01
 9.96189713e-01
 9.99999894e-01
 9.96189777e-01
 9.84788354e-01
 9.65883382e-01
 9.39620212e-01
 9.06200596e-01
 8.65880990e-01
 8.18971022e-01
 7.65830243e-01
 7.06865764e-01
 6.42528680e-01
 5.73310546e-01
 4.99739525e-01
 4.22375926e-01
 3.41808476e-01
 2.58649372e-01
 1.73529717e-01
 8.70947958e-02
 5.61753007e-07
 4.54794940e-07
 8.70944411e-02
 1.73529167e-01
 2.58648877e-01
 3.41808116e-01
 4.22375685e-01
 4.99739303e-01
 5.73310564e-01
 6.42528820e-01
 7.06866099e-01
 7.65830569e-01
 8.18971420e-01
 8.65881370e-01
 9.06200862e-01
 9.39620500e-01
 9.65883533e-01
 9.84788416e-01
 9.96189777e-01
 9.99999990e-01
 9.96189793e-01
 9.84788470e-01
 9.65883711e-01
 9.39620638e-01
 9.06200994e-01
 8.65881555e-01
 8.18971629e-01
 7.65830862e-01
 7.06866337e-01
 6.42529116e-01
 5.73310856e-01
 4.99739698e-01
 4.22376079e-01
 3.41808572e-01
 2.58649405e-01
 1.73529686e-01
 8.70947697e-02
 5.89644582e-07
 4.60686610e-07
 8.70944386e-02
 1.73529165e-01
 2.58648937e-01
 3.41808162e-01
 4.22375763e-01
 4.99739491e-01
 5.73310777e-01
 6.42529055e-01
 7.06866341e-01
 7.65831014e-01
 8.18971805e-01
 8.65881809e-01
 9.06201259e-01
 9.39620678e-01
 9.65883729e-01
 9.84788451e-01
 9.96189755e-01
 9.99999966e-01
 9.96189877e-01
 9.84788600e-01
 9.65883796e-01
 9.39620852e-01
 9.06201282e-01
 8.65881917e-01
 8.18971987e-01
 7.65831206e-01
 7.06866647e-01
 6.42529407e-01
 5.73311080e-01
 4.99739791e-01
 4.22376150e-01
 3.41808593e-01
 2.58649362e-01
 1.73529696e-01
 8.70947108e-02
 5.72777868e-07
 4.67350560e-07
 8.70944399e-02
 1.73529171e-01
 2.58648945e-01
 3.41808192e-01
 4.22375823e-01
 4.99739549e-01
 5.73310894e-01
 6.42529238e-01
 7.06866448e-01
 7.65831079e-01
 8.18971952e-01
 8.65881929e-01
 9.06201328e-01
 9.39620759e-01
 9.65883775e-01
 9.84788414e-01
 9.96189745e-01
 9.99999979e-01
 9.96189746e-01
 9.84788578e-01
 9.65883852e-01
 9.39620942e-01
 9.06201431e-01
 8.65882043e-01
 8.18972123e-01
 7.65831325e-01
 7.06866780e-01
 6.42529546e-01
 5.73311181e-01
 4.99739869e-01
 4.22376182e-01
 3.41808590e-01
 2.58649379e-01
 1.73529662e-01
 8.70947328e-02
 5.72169364e-07
 4.59176064e-07
 8.70944311e-02
 1.73529172e-01
 2.58648927e-01
 3.41808178e-01
 4.22375772e-01
 4.99739521e-01
 5.73310753e-01
 6.42529047e-01
 7.06866342e-01
 7.65830985e-01
 8.18971753e-01
 8.65881779e-01
 9.06201228e-01
 9.39620666e-01
 9.65883740e-01
 9.84788494e-01
 9.96189723e-01
 9.99999989e-01
 9.96189846e-01
 9.84788577e-01
 9.65883810e-01
 9.39620867e-01
 9.06201328e-01
 8.65881899e-01
 8.18971959e-01
 7.65831169e-01
 7.06866577e-01
 6.42529356e-01
 5.73311026e-01
 4.99739771e-01
 4.22376142e-01
 3.41808551e-01
 2.58649320e-01
 1.73529641e-01
 8.70946450e-02
 5.95065652e-07
 4.36610437e-07
 8.70944322e-02
 1.73529146e-01
 2.58648883e-01
 3.41808124e-01
 4.22375670e-01
 4.99739283e-01
 5.73310553e-01
 6.42528774e-01
 7.06866054e-01
 7.65830617e-01
 8.18971444e-01
 8.65881430e-01
 9.06200973e-01
 9.39620556e-01
 9.65883600e-01
 9.84788334e-01
 9.96189780e-01
 9.99999971e-01
 9.96189773e-01
 9.84788441e-01
 9.65883667e-01
 9.39620620e-01
 9.06200963e-01
 8.65881503e-01
 8.18971597e-01
 7.65830827e-01
 7.06866262e-01
 6.42529115e-01
 5.73310777e-01
 4.99739568e-01
 4.22375965e-01
 3.41808456e-01
 2.58649274e-01
 1.73529580e-01
 8.70946608e-02
 6.08254868e-07
 4.40453756e-07
 8.70944055e-02
 1.73529117e-01
 2.58648848e-01
 3.41807996e-01
 4.22375523e-01
 4.99739083e-01
 5.73310201e-01
 6.42528360e-01
 7.06865500e-01
 7.65830036e-01
 8.18970860e-01
 8.65880907e-01
 9.06200526e-01
 9.39620157e-01
 9.65883283e-01
 9.84788246e-01
 9.96189744e-01
 9.99999901e-01
 9.96189750e-01
 9.84788300e-01
 9.65883374e-01
 9.39620189e-01
 9.06200529e-01
 8.65880956e-01
 8.18970968e-01
 7.65830224e-01
 7.06865625e-01
 6.42528622e-01
 5.73310434e-01
 4.99739323e-01
 4.22375790e-01
 3.41808325e-01
 2.58649234e-01
 1.73529543e-01
 8.70946336e-02
 6.13787943e-07
 4.43588230e-07
 8.70943836e-02
 1.73529133e-01
 2.58648830e-01
 3.41807913e-01
 4.22375328e-01
 4.99738723e-01
 5.73309768e-01
 6.42527856e-01
 7.06864857e-01
 7.65829248e-01
 8.18970101e-01
 8.65880259e-01
 9.06199849e-01
 9.39619695e-01
 9.65883100e-01
 9.84788148e-01
 9.96189686e-01
 9.99999850e-01
 9.96189671e-01
 9.84788233e-01
 9.65883068e-01
 9.39619727e-01
 9.06199941e-01
 8.65880329e-01
 8.18970235e-01
 7.65829428e-01
 7.06864993e-01
 6.42527999e-01
 5.73309975e-01
 4.99739027e-01
 4.22375622e-01
 3.41808232e-01
 2.58649137e-01
 1.73529513e-01
 8.70945746e-02
 5.61591721e-07
 4.54686401e-07
 8.70943762e-02
 1.73529127e-01
 2.58648743e-01
 3.41807801e-01
 4.22375130e-01
 4.99738422e-01
 5.73309262e-01
 6.42527206e-01
 7.06864200e-01
 7.65828561e-01
 8.18969286e-01
 8.65879497e-01
 9.06199334e-01
 9.39619200e-01
 9.65882756e-01
 9.84787888e-01
 9.96189548e-01
 9.99999801e-01
 9.96189504e-01
 9.84787865e-01
 9.65882776e-01
 9.39619237e-01
 9.06199264e-01
 8.65879443e-01
 8.18969418e-01
 7.65828684e-01
 7.06864319e-01
 6.42527421e-01
 5.73309471e-01
 4.99738595e-01
 4.22375324e-01
 3.41808054e-01
 2.58649018e-01
 1.73529436e-01
 8.70945336e-02
 6.07164629e-07
 4.46128092e-07
 8.70944260e-02
 1.73529069e-01
 2.58648736e-01
 3.41807721e-01
 4.22374880e-01
 4.99738130e-01
 5.73308871e-01
 6.42526683e-01
 7.06863475e-01
 7.65827854e-01
 8.18968573e-01
 8.65878800e-01
 9.06198636e-01
 9.39618787e-01
 9.65882418e-01
 9.84787692e-01
 9.96189363e-01
 9.99999676e-01
 9.96189426e-01
 9.84787738e-01
 9.65882424e-01
 9.39618740e-01
 9.06198717e-01
 8.65878888e-01
 8.18968694e-01
 7.65827941e-01
 7.06863612e-01
 6.42526809e-01
 5.73308999e-01
 4.99738318e-01
 4.22375076e-01
 3.41807909e-01
 2.58648970e-01
 1.73529376e-01
 8.70944970e-02
 6.18461888e-07
 4.67677853e-07
 8.70944131e-02
 1.73529105e-01
 2.58648705e-01
 3.41807602e-01
 4.22374739e-01
 4.99737879e-01
 5.73308566e-01
 6.42526255e-01
 7.06862975e-01
 7.65827292e-01
 8.18968027e-01
 8.65878264e-01
 9.06198237e-01
 9.39618319e-01
 9.65882129e-01
 9.84787464e-01
 9.96189293e-01
 9.99999635e-01
 9.96189311e-01
 9.84787554e-01
 9.65882174e-01
 9.39618445e-01
 9.06198113e-01
 8.65878238e-01
 8.18968026e-01
 7.65827329e-01
 7.06863008e-01
 6.42526280e-01
 5.73308605e-01
 4.99737972e-01
 4.22374877e-01
 3.41807754e-01
 2.58648865e-01
 1.73529348e-01
 8.70944737e-02
 5.58604081e-07
 4.87595066e-07
 8.70944074e-02
 1.73529091e-01
 2.58648674e-01
 3.41807547e-01
 4.22374683e-01
 4.99737723e-01
 5.73308339e-01
 6.42525913e-01
 7.06862635e-01
 7.65826830e-01
 8.18967626e-01
 8.65877866e-01
 9.06197872e-01
 9.39618118e-01
 9.65881919e-01
 9.84787432e-01
 9.96189209e-01
 9.99999493e-01
 9.96189249e-01
 9.84787342e-01
 9.65881958e-01
 9.39618082e-01
 9.06197829e-01
 8.65877877e-01
 8.18967604e-01
 7.65826906e-01
 7.06862682e-01
 6.42525991e-01
 5.73308381e-01
 4.99737816e-01
 4.22374753e-01
 3.41807686e-01
 2.58648818e-01
 1.73529313e-01
 8.70944442e-02
 6.53847702e-07
 4.61861480e-07
 8.70944191e-02
 1.73529099e-01
 2.58648658e-01
 3.41807550e-01
 4.22374602e-01
 4.99737765e-01
 5.73308315e-01
 6.42525853e-01
 7.06862536e-01
 7.65826752e-01
 8.18967492e-01
 8.65877721e-01
 9.06197710e-01
 9.39617967e-01
 9.65881881e-01
 9.84787337e-01
 9.96189172e-01
 9.99999622e-01
 9.96189140e-01
 9.84787325e-01
 9.65881864e-01
 9.39618036e-01
 9.06197663e-01
 8.65877696e-01
 8.18967469e-01
 7.65826787e-01
 7.06862476e-01
 6.42525904e-01
 5.73308257e-01
 4.99737729e-01
 4.22374691e-01
 3.41807600e-01
 2.58648791e-01
 1.73529271e-01
 8.70944172e-02
 6.32212234e-07
 4.55498556e-07
 8.70944246e-02
 1.73529123e-01
 2.58648678e-01
 3.41807592e-01
 4.22374719e-01
 4.99737732e-01
 5.73308320e-01
 6.42525975e-01
 7.06862648e-01
 7.65826943e-01
 8.18967627e-01
 8.65877928e-01
 9.06197838e-01
 9.39618124e-01
 9.65881938e-01
 9.84787359e-01
 9.96189221e-01
 9.99999461e-01
 9.96189201e-01
 9.84787369e-01
 9.65881855e-01
 9.39618093e-01
 9.06197744e-01
 8.65877878e-01
 8.18967616e-01
 7.65826790e-01
 7.06862595e-01
 6.42525942e-01
 5.73308273e-01
 4.99737767e-01
 4.22374730e-01
 3.41807649e-01
 2.58648751e-01
 1.73529244e-01
 8.70943494e-02
 6.25215721e-07
 4.68860703e-07
 8.70944079e-02
 1.73529162e-01
 2.58648707e-01
 3.41807652e-01
 4.22374800e-01
 4.99737948e-01
 5.73308600e-01
 6.42526239e-01
 7.06863030e-01
 7.65827301e-01
 8.18968025e-01
 8.65878304e-01
 9.06198187e-01
 9.39618365e-01
 9.65882116e-01
 9.84787525e-01
 9.96189320e-01
 9.99999600e-01
 9.96189265e-01
 9.84787460e-01
 9.65882015e-01
 9.39618282e-01
 9.06198109e-01
 8.65878067e-01
 8.18967980e-01
 7.65827180e-01
 7.06862866e-01
 6.42526178e-01
 5.73308502e-01
 4.99737896e-01
 4.22374787e-01
 3.41807679e-01
 2.58648765e-01
 1.73529198e-01
 8.70943229e-02
 6.09686024e-07
 4.51412314e-07
 8.70944648e-02
 1.73529198e-01
 2.58648772e-01
 3.41807732e-01
 4.22374954e-01
 4.99738230e-01
 5.73308956e-01
 6.42526771e-01
 7.06863514e-01
 7.65827842e-01
 8.18968691e-01
 8.65878830e-01
 9.06198665e-01
 9.39618773e-01
 9.65882377e-01
 9.84787649e-01
 9.96189463e-01
 9.99999662e-01
 9.96189325e-01
 9.84787687e-01
 9.65882359e-01
 9.39618700e-01
 9.06198575e-01
 8.65878700e-01
 8.18968510e-01
 7.65827813e-01
 7.06863429e-01
 6.42526646e-01
 5.73308855e-01
 4.99738101e-01
 4.22374889e-01
 3.41807732e-01
 2.58648772e-01
 1.73529208e-01
 8.70943309e-02
 6.40136264e-07
 4.53428962e-07
 8.70944979e-02
 1.73529186e-01
 2.58648864e-01
 3.41807875e-01
 4.22375181e-01
 4.99738530e-01
 5.73309411e-01
 6.42527327e-01
 7.06864271e-01
 7.65828638e-01
 8.18969436e-01
 8.65879573e-01
 9.06199314e-01
 9.39619265e-01
 9.65882759e-01
 9.84787916e-01
 9.96189437e-01
 9.99999745e-01
 9.96189458e-01
 9.84787820e-01
 9.65882729e-01
 9.39619140e-01
 9.06199186e-01
 8.65879395e-01
 8.18969273e-01
 7.65828510e-01
 7.06864104e-01
 6.42527157e-01
 5.73309185e-01
 4.99738399e-01
 4.22375091e-01
 3.41807809e-01
 2.58648764e-01
 1.73529199e-01
 8.70942762e-02
 6.64395579e-07
 4.32519905e-07
 8.70944920e-02
 1.73529207e-01
 2.58648908e-01
 3.41808005e-01
 4.22375441e-01
 4.99738863e-01
 5.73309861e-01
 6.42527892e-01
 7.06864995e-01
 7.65829389e-01
 8.18970214e-01
 8.65880282e-01
 9.06199951e-01
 9.39619758e-01
 9.65883038e-01
 9.84788086e-01
 9.96189602e-01
 9.99999845e-01
 9.96189501e-01
 9.84788021e-01
 9.65882955e-01
 9.39619667e-01
 9.06199814e-01
 8.65880095e-01
 8.18970002e-01
 7.65829274e-01
 7.06864796e-01
 6.42527747e-01
 5.73309724e-01
 4.99738692e-01
 4.22375278e-01
 3.41807871e-01
 2.58648836e-01
 1.73529204e-01
 8.70942644e-02
 6.33383083e-07
 4.47700782e-07
 8.70945049e-02
 1.73529268e-01
 2.58648978e-01
 3.41808161e-01
 4.22375647e-01
 4.99739250e-01
 5.73310306e-01
 6.42528489e-01
 7.06865601e-01
 7.65830174e-01
 8.18970970e-01
 8.65880999e-01
 9.06200521e-01
 9.39620219e-01
 9.65883317e-01
 9.84788293e-01
 9.96189623e-01
 9.99999927e-01
 9.96189658e-01
 9.84788215e-01
 9.65883243e-01
 9.39620115e-01
 9.06200309e-01
 8.65880742e-01