# vtk DataFile Version 3.0
Structured Grid by matlab-interface of openEMS
ASCII
DATASET STRUCTURED_GRID
DIMENSIONS 1 91 181
POINTS 16471 double
-0.000000e+00 -0.000000e+00 9.704230e-01
-3.563424e-02 -4.363936e-18 1.020431e+00
-7.480578e-02 -9.161066e-18 1.069772e+00
-1.174652e-01 -1.438534e-17 1.117607e+00
-1.634714e-01 -2.001948e-17 1.163160e+00
-2.126025e-01 -2.603630e-17 1.205729e+00
-2.645674e-01 -3.240017e-17 1.244692e+00
-3.190167e-01 -3.906828e-17 1.279506e+00
-3.755541e-01 -4.599212e-17 1.309713e+00
-4.337477e-01 -5.311878e-17 1.334938e+00
-4.931408e-01 -6.039232e-17 1.354893e+00
-5.532616e-01 -6.775500e-17 1.369370e+00
-6.136343e-01 -7.514853e-17 1.378245e+00
-6.737870e-01 -8.251511e-17 1.381468e+00
-7.332618e-01 -8.979868e-17 1.379065e+00
-7.916213e-01 -9.694564e-17 1.371128e+00
-8.484556e-01 -1.039058e-16 1.357813e+00
-9.033893e-01 -1.106333e-16 1.339330e+00
-9.560848e-01 -1.170866e-16 1.315938e+00
-1.006248e+00 -1.232298e-16 1.287938e+00
-1.053628e+00 -1.290322e-16 1.255665e+00
-1.098023e+00 -1.344691e-16 1.219478e+00
-1.139280e+00 -1.395215e-16 1.179759e+00
-1.177292e+00 -1.441767e-16 1.136897e+00
-1.212001e+00 -1.484273e-16 1.091290e+00
-1.243394e+00 -1.522719e-16 1.043332e+00
-1.271504e+00 -1.557144e-16 9.934080e-01
-1.296403e+00 -1.587635e-16 9.418916e-01
-1.318199e+00 -1.614329e-16 8.891368e-01
-1.337039e+00 -1.637400e-16 8.354746e-01
-1.353094e+00 -1.657062e-16 7.812090e-01
-1.366562e+00 -1.673556e-16 7.266138e-01
-1.377661e+00 -1.687148e-16 6.719301e-01
-1.386623e+00 -1.698124e-16 6.173646e-01
-1.393692e+00 -1.706780e-16 5.630879e-01
-1.399111e+00 -1.713417e-16 5.092348e-01
-1.403127e+00 -1.718335e-16 4.559037e-01
-1.405980e+00 -1.721829e-16 4.031582e-01
-1.407897e+00 -1.724176e-16 3.510281e-01
-1.409092e+00 -1.725640e-16 2.995117e-01
-1.409758e+00 -1.726456e-16 2.485784e-01
-1.410067e+00 -1.726834e-16 1.981720e-01
-1.410162e+00 -1.726950e-16 1.482140e-01
-1.410158e+00 -1.726945e-16 9.860784e-02
-1.410139e+00 -1.726922e-16 4.924314e-02
-1.410156e+00 -1.726943e-16 8.634716e-17
-1.410226e+00 -1.727029e-16 -4.924619e-02
-1.410333e+00 -1.727159e-16 -9.862006e-02
-1.410425e+00 -1.727272e-16 -1.482416e-01
-1.410419e+00 -1.727265e-16 -1.982214e-01
-1.410200e+00 -1.726997e-16 -2.486563e-01
-1.409625e+00 -1.726293e-16 -2.996251e-01
-1.408524e+00 -1.724944e-16 -3.511844e-01
-1.406702e+00 -1.722713e-16 -4.033654e-01
-1.403948e+00 -1.719341e-16 -4.561705e-01
-1.400033e+00 -1.714546e-16 -5.095703e-01
-1.394717e+00 -1.708035e-16 -5.635021e-01
-1.387755e+00 -1.699509e-16 -6.178681e-01
-1.378899e+00 -1.688665e-16 -6.725342e-01
-1.367909e+00 -1.675206e-16 -7.273304e-01
-1.354551e+00 -1.658846e-16 -7.820502e-01
-1.338604e+00 -1.639318e-16 -8.364528e-01
-1.319871e+00 -1.616376e-16 -8.902645e-01
-1.298177e+00 -1.589809e-16 -9.431809e-01
-1.273376e+00 -1.559436e-16 -9.948707e-01
-1.245357e+00 -1.525123e-16 -1.044979e+00
-1.214047e+00 -1.486778e-16 -1.093132e+00
-1.179411e+00 -1.444362e-16 -1.138944e+00
-1.141461e+00 -1.397887e-16 -1.182018e+00
-1.100256e+00 -1.347425e-16 -1.221958e+00
-1.055899e+00 -1.293103e-16 -1.258372e+00
-1.008545e+00 -1.235111e-16 -1.290879e+00
-9.583950e-01 -1.173695e-16 -1.319118e+00
-9.056990e-01 -1.109161e-16 -1.342754e+00
-8.507516e-01 -1.041870e-16 -1.361487e+00
-7.938900e-01 -9.722349e-17 -1.375058e+00
-7.354903e-01 -9.007158e-17 -1.383256e+00
-6.759617e-01 -8.278143e-17 -1.385927e+00
-6.157416e-01 -7.540660e-17 -1.382978e+00
-5.552877e-01 -6.800313e-17 -1.374385e+00
-4.950714e-01 -6.062876e-17 -1.360198e+00
-4.355679e-01 -5.334169e-17 -1.340540e+00
-3.772480e-01 -4.619956e-17 -1.315620e+00
-3.205678e-01 -3.925823e-17 -1.285727e+00
-2.659580e-01 -3.257047e-17 -1.251234e+00
-2.138140e-01 -2.618466e-17 -1.212599e+00
-1.644837e-01 -2.014345e-17 -1.170363e+00
-1.182575e-01 -1.448237e-17 -1.125145e+00
-7.535635e-02 -9.228492e-18 -1.077646e+00
-3.592074e-02 -4.399022e-18 -1.028636e+00
-1.198866e-16 -1.468188e-32 -9.789486e-01
-0.000000e+00 -0.000000e+00 9.704231e-01
-3.565300e-02 -1.245030e-03 1.021591e+00
-7.491175e-02 -2.615976e-03 1.071941e+00
-1.177136e-01 -4.110650e-03 1.120653e+00
-1.639066e-01 -5.723746e-03 1.166967e+00
-2.132600e-01 -7.447202e-03 1.210195e+00
-2.654741e-01 -9.270560e-03 1.249719e+00
-3.201919e-01 -1.118135e-02 1.285002e+00
-3.770088e-01 -1.316544e-02 1.315587e+00
-4.354842e-01 -1.520744e-02 1.341099e+00
-4.951514e-01 -1.729107e-02 1.361246e+00
-5.555283e-01 -1.939948e-02 1.375819e+00
-6.161274e-01 -2.151564e-02 1.384688e+00
-6.764642e-01 -2.362265e-02 1.387803e+00
-7.360679e-01 -2.570406e-02 1.385186e+00
-7.944873e-01 -2.774411e-02 1.376931e+00
-8.512994e-01 -2.972803e-02 1.363194e+00
-9.061150e-01 -3.164223e-02 1.344190e+00
-9.585843e-01 -3.347450e-02 1.320182e+00
-1.008401e+00 -3.521413e-02 1.291481e+00
-1.055305e+00 -3.685206e-02 1.258430e+00
-1.099086e+00 -3.838091e-02 1.221402e+00
-1.139583e+00 -3.979510e-02 1.180792e+00
-1.176686e+00 -4.109078e-02 1.137005e+00
-1.210336e+00 -4.226587e-02 1.090456e+00
-1.240522e+00 -4.331999e-02 1.041556e+00
-1.267280e+00 -4.425441e-02 9.907115e-01
-1.290691e+00 -4.507191e-02 9.383132e-01
-1.310874e+00 -4.577672e-02 8.847345e-01
-1.327988e+00 -4.637435e-02 8.303246e-01
-1.342222e+00 -4.687143e-02 7.754048e-01
-1.353796e+00 -4.727560e-02 7.202649e-01
-1.362949e+00 -4.759524e-02 6.651599e-01
-1.369940e+00 -4.783935e-02 6.103082e-01
-1.375037e+00 -4.801735e-02 5.558897e-01
-1.378516e+00 -4.813885e-02 5.020447e-01
-1.380653e+00 -4.821346e-02 4.488748e-01
-1.381717e+00 -4.825063e-02 3.964426e-01
-1.381968e+00 -4.825940e-02 3.447735e-01
-1.381649e+00 -4.824824e-02 2.938575e-01
-1.380980e+00 -4.822490e-02 2.436525e-01
-1.380158e+00 -4.819619e-02 1.940868e-01
-1.379349e+00 -4.816792e-02 1.450638e-01
-1.378685e+00 -4.814474e-02 9.646581e-02
-1.378264e+00 -4.813003e-02 4.815936e-02
-1.378144e+00 -4.812585e-02 8.443842e-17
-1.378346e+00 -4.813289e-02 -4.816223e-02
-1.378849e+00 -4.815047e-02 -9.647728e-02
-1.379595e+00 -4.817654e-02 -1.450897e-01
-1.380489e+00 -4.820774e-02 -1.941333e-01
-1.381396e+00 -4.823943e-02 -2.437259e-01
-1.382153e+00 -4.826583e-02 -2.939647e-01
-1.382562e+00 -4.828013e-02 -3.449215e-01
-1.382404e+00 -4.827461e-02 -3.966396e-01
-1.381435e+00 -4.824079e-02 -4.491292e-01
-1.379398e+00 -4.816964e-02 -5.023658e-01
-1.376021e+00 -4.805172e-02 -5.562876e-01
-1.371029e+00 -4.787740e-02 -6.107937e-01
-1.364147e+00 -4.763707e-02 -6.657446e-01
-1.355104e+00 -4.732128e-02 -7.209609e-01
-1.343641e+00 -4.692099e-02 -7.762246e-01
-1.329517e+00 -4.642777e-02 -8.312810e-01
-1.312512e+00 -4.583394e-02 -8.858403e-01
-1.292435e+00 -4.513283e-02 -9.395814e-01
-1.269126e+00 -4.431884e-02 -9.921540e-01
-1.242462e+00 -4.338773e-02 -1.043185e+00
-1.212363e+00 -4.233663e-02 -1.092282e+00
-1.178790e+00 -4.116424e-02 -1.139038e+00
-1.141753e+00 -3.987090e-02 -1.183041e+00
-1.101311e+00 -3.845864e-02 -1.223876e+00
-1.057574e+00 -3.693129e-02 -1.261136e+00
-1.010700e+00 -3.529442e-02 -1.294425e+00
-9.609004e-01 -3.355538e-02 -1.323372e+00
-9.084346e-01 -3.172324e-02 -1.347631e+00
-8.536088e-01 -2.980868e-02 -1.366892e+00
-7.967728e-01 -2.782392e-02 -1.380892e+00
-7.383156e-01 -2.578255e-02 -1.389416e+00
-6.786603e-01 -2.369934e-02 -1.392308e+00
-6.182574e-01 -2.159002e-02 -1.389475e+00
-5.575777e-01 -1.947104e-02 -1.380894e+00
-4.971051e-01 -1.735929e-02 -1.366617e+00
-4.373262e-01 -1.527177e-02 -1.346772e+00
-3.787229e-01 -1.322529e-02 -1.321569e+00
-3.217605e-01 -1.123613e-02 -1.291298e+00
-2.668793e-01 -9.319629e-03 -1.256334e+00
-2.144826e-01 -7.489896e-03 -1.217133e+00
-1.649268e-01 -5.759370e-03 -1.174230e+00
-1.185106e-01 -4.138481e-03 -1.128240e+00
-7.546446e-02 -2.635277e-03 -1.079850e+00
-3.593999e-02 -1.255052e-03 -1.029814e+00
-1.198136e-16 -4.183983e-18 -9.789486e-01
-0.000000e+00 -0.000000e+00 9.704231e-01
-3.562620e-02 -2.491226e-03 1.022692e+00
-7.491851e-02 -5.238813e-03 1.074001e+00
-1.178021e-01 -8.237527e-03 1.123549e+00
-1.641155e-01 -1.147608e-02 1.170594e+00
-2.136201e-01 -1.493777e-02 1.214458e+00
-2.660096e-01 -1.860120e-02 1.254533e+00
-3.209202e-01 -2.244092e-02 1.290284e+00
-3.779406e-01 -2.642818e-02 1.321254e+00
-4.366228e-01 -3.053164e-02 1.347068e+00
-4.964915e-01 -3.471806e-02 1.367430e+00
-5.570550e-01 -3.895308e-02 1.382126e+00
-6.178149e-01 -4.320183e-02 1.391023e+00
-6.782755e-01 -4.742964e-02 1.394067e+00
-7.379524e-01 -5.160266e-02 1.391276e+00
-7.963816e-01 -5.568843e-02 1.382742e+00
-8.531263e-01 -5.965640e-02 1.368621e+00
-9.077836e-01 -6.347841e-02 1.349131e+00
-9.599903e-01 -6.712906e-02 1.324540e+00
-1.009427e+00 -7.058604e-02 1.295163e+00
-1.055824e+00 -7.383041e-02 1.261355e+00
-1.098959e+00 -7.684673e-02 1.223498e+00
-1.138666e+00 -7.962326e-02 1.182002e+00
-1.174827e+00 -8.215191e-02 1.137288e+00
-1.207381e+00 -8.442832e-02 1.089786e+00
-1.236317e+00 -8.645171e-02 1.039926e+00
-1.261674e+00 -8.822485e-02 9.881349e-01
-1.283538e+00 -8.975372e-02 9.348221e-01
-1.302040e+00 -9.104748e-02 8.803814e-01
-1.317350e+00 -9.211809e-02 8.251818e-01
-1.329676e+00 -9.298000e-02 7.695634e-01
-1.339255e+00 -9.364983e-02 7.138334e-01
-1.346351e+00 -9.414606e-02 6.582629e-01
-1.351249e+00 -9.448854e-02 6.030839e-01
-1.354246e+00 -9.469811e-02 5.484870e-01
-1.355649e+00 -9.479622e-02 4.946208e-01
-1.355767e+00 -9.480446e-02 4.415911e-01
-1.354903e+00 -9.474403e-02 3.894608e-01
-1.353350e+00 -9.463547e-02 3.382521e-01
-1.351386e+00 -9.449809e-02 2.879473e-01
-1.349262e+00 -9.434961e-02 2.384923e-01
-1.347205e+00 -9.420575e-02 1.897997e-01
-1.345405e+00 -9.407991e-02 1.417531e-01
-1.344018e+00 -9.398286e-02 9.421236e-02
-1.343154e+00 -9.392245e-02 4.701849e-02
-1.342883e+00 -9.390354e-02 8.242867e-17
-1.343228e+00 -9.392769e-02 -4.702111e-02
-1.344167e+00 -9.399335e-02 -9.422287e-02
-1.345632e+00 -9.409575e-02 -1.417770e-01
-1.347509e+00 -9.422702e-02 -1.898425e-01
-1.349646e+00 -9.437645e-02 -2.385602e-01
-1.351852e+00 -9.453073e-02 -2.880468e-01
-1.353903e+00 -9.467409e-02 -3.383901e-01
-1.355544e+00 -9.478889e-02 -3.896452e-01
-1.356501e+00 -9.485582e-02 -4.418303e-01
[...]
POINT_DATA 16471
SCALARS gain double 1
LOOKUP_TABLE default
 9.70423020e-01
 1.02105307e+00
 1.07238473e+00
 1.12376298e+00
 1.17459069e+00
 1.22432928e+00
 1.27249906e+00
 1.31867633e+00
 1.36249357e+00
 1.40363718e+00
 1.44184711e+00
 1.47691366e+00
 1.50867714e+00
 1.53702416e+00
 1.56188767e+00
 1.58324253e+00
 1.60110355e+00
 1.61552352e+00
 1.62658859e+00
 1.63441687e+00
 1.63915368e+00
 1.64096992e+00
 1.64005764e+00
 1.63662809e+00
 1.63090780e+00
 1.62313607e+00
 1.61356201e+00
 1.60244162e+00
 1.59003584e+00
 1.57660728e+00
 1.56241794e+00
 1.54772699e+00
 1.53278825e+00
 1.51784838e+00
 1.50314470e+00
 1.48890301e+00
 1.47533538e+00
 1.46263988e+00
 1.45099744e+00
 1.44057157e+00
 1.43150588e+00
 1.42392436e+00
 1.41792914e+00
 1.41360131e+00
 1.41099861e+00
 1.41015621e+00
 1.41108609e+00
 1.41377645e+00
 1.41819363e+00
 1.42427979e+00
 1.43195479e+00
 1.44111696e+00
 1.45164365e+00
 1.46339160e+00
 1.47619862e+00
 1.48988386e+00
 1.50425047e+00
 1.51908651e+00
 1.53416625e+00
 1.54925328e+00
 1.56410048e+00
 1.57845335e+00
 1.59205264e+00
 1.60463525e+00
 1.61593780e+00
 1.62569868e+00
 1.63366076e+00
 1.63957418e+00
 1.64319831e+00
 1.64430658e+00
 1.64268735e+00
 1.63814837e+00
 1.63051894e+00
 1.61965395e+00
 1.60543622e+00
 1.58778005e+00
 1.56663438e+00
 1.54198493e+00
 1.51385815e+00
 1.48232230e+00
 1.44749198e+00
 1.40952743e+00
 1.36863898e+00
 1.32508781e+00
 1.27918753e+00
 1.23130572e+00
 1.18186447e+00
 1.13134283e+00
 1.08027755e+00
 1.02926251e+00
 9.78948568e-01
 9.70423075e-01
 1.02221350e+00
 1.07455856e+00
 1.12682566e+00
 1.17843563e+00
 1.22886373e+00
 1.27763829e+00
 1.32434086e+00
 1.36860473e+00
 1.41011538e+00
 1.44860817e+00
 1.48386852e+00
 1.51572998e+00
 1.54407192e+00
 1.56882046e+00
 1.58994306e+00
 1.60744920e+00
 1.62138564e+00
 1.63183510e+00
 1.63891284e+00
 1.64276363e+00
 1.64355875e+00
 1.64149343e+00
 1.63678305e+00
 1.62966062e+00
 1.62037385e+00
 1.60918224e+00
 1.59635381e+00
 1.58216338e+00
 1.56688879e+00
 1.55080950e+00
 1.53420346e+00
 1.51734426e+00
 1.50049974e+00
 1.48392923e+00
 1.46788055e+00
 1.45258933e+00
 1.43827587e+00
 1.42514369e+00
 1.41337673e+00
 1.40313893e+00
 1.39457131e+00
 1.38779196e+00
 1.38289404e+00
 1.37994434e+00
 1.37898397e+00
 1.38002642e+00
 1.38305845e+00
 1.38804025e+00
 1.39490566e+00
 1.40356172e+00
 1.41389207e+00
 1.42575568e+00
 1.43899064e+00
 1.45341258e+00
 1.46881934e+00
 1.48499139e+00
 1.50169338e+00
 1.51867796e+00
 1.53568601e+00
 1.55244912e+00
 1.56869371e+00
 1.58414089e+00
 1.59851134e+00
 1.61152521e+00
 1.62290777e+00
 1.63238919e+00
 1.63970938e+00
 1.64462000e+00
 1.64688744e+00
 1.64629563e+00
 1.64264949e+00
 1.63577790e+00
 1.62553630e+00
 1.61180996e+00
 1.59451690e+00
 1.57361108e+00
 1.54908461e+00
 1.52096997e+00
 1.48934264e+00
 1.45432389e+00
 1.41608008e+00
 1.37482707e+00
 1.33082892e+00
 1.28440077e+00
 1.23590876e+00
 1.18577011e+00
 1.13445494e+00
 1.08248679e+00
 1.03044170e+00
 9.78948623e-01
 9.70423142e-01
 1.02331541e+00
 1.07662343e+00
 1.12973802e+00
 1.18209823e+00
 1.23319306e+00
 1.28255960e+00
 1.32978378e+00
 1.37449989e+00
 1.41639116e+00
 1.45518868e+00
 1.49067128e+00
 1.52266472e+00
 1.55104125e+00
 1.57571727e+00
 1.59665262e+00
 1.61384881e+00
 1.62734595e+00
 1.63722119e+00
 1.64358555e+00
 1.64658172e+00
 1.64637956e+00
 1.64317621e+00
 1.63718991e+00
 1.62865897e+00
 1.61783834e+00
 1.60499707e+00
 1.59041433e+00
 1.57437873e+00
 1.55718392e+00
 1.53912675e+00
 1.52050398e+00
 1.50161094e+00
 1.48273808e+00
 1.46416801e+00
 1.44617451e+00
 1.42901877e+00
 1.41294650e+00
 1.39818716e+00
 1.38495012e+00
 1.37342238e+00
 1.36376678e+00
 1.35611967e+00
 1.35058946e+00
 1.34725419e+00
 1.34616234e+00
 1.34732928e+00
 1.35074014e+00
 1.35634800e+00
 1.36407473e+00
 1.37381316e+00
 1.38542845e+00
 1.39875779e+00
 1.41361547e+00
 1.42979289e+00
 1.44706212e+00
 1.46517727e+00
 1.48387770e+00
 1.50289055e+00
 1.52193281e+00
 1.54071399e+00
 1.55893848e+00
 1.57630858e+00
 1.59252700e+00
 1.60729907e+00
 1.62033560e+00
 1.63135568e+00
 1.64009016e+00
 1.64628276e+00
 1.64969491e+00
 1.65010714e+00
 1.64732391e+00
 1.64117337e+00
 1.63151441e+00
 1.61823607e+00
 1.60126185e+00
 1.58055186e+00
 1.55610607e+00
 1.52796482e+00
 1.49621201e+00
 1.46097668e+00
 1.42243222e+00
 1.38080046e+00
 1.33635020e+00
 1.28939779e+00
 1.24030858e+00
 1.18949485e+00
 1.13741783e+00
 1.08458781e+00
 1.03156276e+00
 9.78948526e-01
 9.70423139e-01
 1.02435742e+00
 1.07857739e+00
 1.13249750e+00
 1.18557561e+00
 1.23731374e+00
 1.28725773e+00
 1.33499849e+00
 1.38017072e+00
 1.42245526e+00
 1.46157790e+00
 1.49731118e+00
 1.52947211e+00
 1.55792374e+00
 1.58257351e+00
 1.60337155e+00
 1.62031041e+00
 1.63342245e+00
 1.64277777e+00
 1.64848179e+00
 1.65067311e+00
 1.64952021e+00
 1.64521902e+00
 1.63799031e+00
 1.62807619e+00
 1.61573787e+00
 1.60125235e+00
 1.58490981e+00
 1.56701150e+00
 1.54786588e+00
 1.52778713e+00
 1.50709163e+00
 1.48609611e+00
 1.46511432e+00
 1.44445521e+00
 1.42441791e+00
 1.40529274e+00
 1.38735450e+00
 1.37086101e+00
 1.35605038e+00
 1.34313707e+00
 1.33230822e+00
 1.32372318e+00
 1.31750786e+00
 1.31375444e+00
 1.31251887e+00
 1.31382096e+00
 1.31764209e+00
 1.32392696e+00
 1.33258467e+00
 1.34348953e+00
 1.35648417e+00
 1.37138164e+00
 1.38796911e+00
 1.40600914e+00
 1.42524459e+00
 1.44540141e+00
 1.46619042e+00
 1.48731166e+00
 1.50845710e+00
 1.52931238e+00
 1.54956079e+00
 1.56888447e+00
 1.58696946e+00
 1.60350555e+00
 1.61819101e+00
 1.63073444e+00
 1.64085799e+00
 1.64829976e+00
 1.65281709e+00
 1.65418852e+00
 1.65221802e+00
 1.64673698e+00
 1.63760755e+00
 1.62472355e+00
 1.60801588e+00
 1.58745246e+00
 1.56304197e+00
 1.53483338e+00
 1.50292025e+00
 1.46744002e+00
 1.42857445e+00
 1.38655185e+00
 1.34164520e+00
 1.29417352e+00
 1.24450106e+00
 1.19303502e+00
 1.14022881e+00
 1.08657851e+00
 1.03262441e+00
 9.78948610e-01
 9.70423070e-01
 1.02533869e+00
 1.08041888e+00
 1.13510194e+00
 1.18886393e+00
 1.24122088e+00
 1.29172729e+00
 1.33997796e+00
 1.38560835e+00
 1.42829709e+00
 1.46776447e+00
 1.50377579e+00
 1.53613958e+00
 1.56470913e+00
 1.58938173e+00
 1.61009729e+00
 1.62683898e+00
 1.63962961e+00
 1.64853163e+00
 1.65364406e+00
 1.65509998e+00
 1.65306505e+00
 1.64773351e+00
 1.63932674e+00
 1.62808931e+00
 1.61428766e+00
 1.59820544e+00
 1.58014227e+00
 1.56041125e+00
 1.53933483e+00
 1.51724347e+00
 1.49447275e+00
 1.47136008e+00
 1.44824338e+00
 1.42545704e+00
 1.40332891e+00
 1.38217838e+00
 1.36231098e+00
 1.34401655e+00
 1.32756442e+00
 1.31319982e+00
 1.30113841e+00
 1.29156452e+00
 1.28462506e+00
 1.28042869e+00
 1.27904166e+00
 1.28048602e+00
 1.28474008e+00
 1.29173958e+00
 1.30137747e+00
 1.31350706e+00
 1.32794614e+00
 1.34447888e+00
 1.36286191e+00
 1.38282719e+00
 1.40408501e+00
 1.42633075e+00
 1.44924559e+00
 1.47250202e+00
 1.49576507e+00
 1.51869736e+00
 1.54096093e+00
 1.56221890e+00
 1.58214048e+00
 1.60040171e+00
 1.61668957e+00
 1.63070276e+00
 1.64215631e+00
 1.65078368e+00
 1.65633944e+00
 1.65860181e+00
 1.65737591e+00
 1.65249652e+00
 1.64382988e+00
 1.63127749e+00
 1.61477722e+00
 1.59430619e+00
 1.56988184e+00
 1.54156404e+00
 1.50945526e+00
 1.47370290e+00
 1.43449674e+00
 1.39207205e+00
 1.34670659e+00
 1.29872210e+00
 1.24848142e+00
 1.19638788e+00
 1.14288555e+00
 1.08845762e+00
 1.03362524e+00
 9.78948545e-01
 9.70423083e-01
 1.02625823e+00
 1.08214635e+00
 1.13754871e+00
 1.19196059e+00
 1.24491062e+00
 1.29596217e+00
 1.34471409e+00
 1.39080318e+00
 1.43390517e+00
 1.47373496e+00
 1.51005101e+00
 1.54265279e+00
 1.57138351e+00
 1.59613040e+00
 1.61682292e+00
 1.63343347e+00
 1.64597572e+00
 1.65450357e+00
 1.65910842e+00
 1.65991756e+00
 1.65709237e+00
 1.65082479e+00
 1.64133521e+00
 1.62887023e+00
 1.61369881e+00
 1.59611166e+00
 1.57641564e+00
 1.55493412e+00
 1.53200213e+00
 1.50796533e+00
 1.48317720e+00
 1.45799555e+00
 1.43278074e+00
 1.40789241e+00
 1.38368713e+00
 1.36051371e+00
 1.33871043e+00
 1.31859988e+00
 1.30048515e+00
 1.28464424e+00
 1.27132466e+00
 1.26073816e+00
 1.25305601e+00
 1.24840428e+00
 1.24685985e+00
 1.24844983e+00
 1.25314853e+00
 1.26088069e+00
 1.27152099e+00
 1.28489995e+00
 1.30080708e+00
 1.31899545e+00
 1.33918935e+00
 1.36108614e+00
 1.38436350e+00
 1.40868411e+00
 1.43369992e+00
 1.45905456e+00
 1.48438822e+00
 1.50933999e+00
 1.53355139e+00
 1.55666861e+00
 1.57834527e+00
 1.59824507e+00
 1.61604379e+00
 1.63143330e+00
 1.64412222e+00
 1.65384057e+00
 1.66034147e+00
 1.66340358e+00
 1.66283447e+00
 1.65847281e+00
 1.65019136e+00
 1.63789805e+00
 1.62153950e+00
 1.60110209e+00
 1.57661306e+00
 1.54814265e+00
 1.51580341e+00
 1.47975242e+00
 1.44018794e+00
 1.39735182e+00
 1.35152708e+00
 1.30303765e+00
 1.25224574e+00
 1.19954979e+00
 1.14538570e+00
 1.09022268e+00
 1.03456482e+00
 9.78948558e-01
 9.70423101e-01
 1.02711504e+00
 1.08375770e+00
 1.13983570e+00
 1.19486168e+00
 1.24837780e+00
 1.29995561e+00
 1.34919893e+00
 1.39574479e+00
 1.43926670e+00
 1.47947494e+00
 1.51612037e+00
 1.54899414e+00
 1.57792972e+00
 1.60280376e+00
 1.62353550e+00
 1.64008704e+00
 1.65246212e+00
 1.66070556e+00
 1.66490123e+00
 1.66517023e+00
 1.66166850e+00
 1.65458483e+00
 1.64413859e+00
 1.63057604e+00
 1.61416967e+00
 1.59521325e+00
 1.57402100e+00
 1.55092481e+00
 1.52627055e+00
 1.50041780e+00
 1.47373545e+00
 1.44659997e+00
 1.41939340e+00
 1.39249932e+00
 1.36630093e+00
 1.34117711e+00
 1.31749777e+00
 1.29561832e+00
 1.27587738e+00
 1.25858647e+00
 1.24402580e+00
 1.23243764e+00
 1.22401860e+00
 1.21891370e+00
 1.21721264e+00
 1.21894702e+00
 1.22408630e+00
 1.23254342e+00
 1.24417440e+00
 1.25878438e+00
 1.27613288e+00
 1.29594047e+00
 1.31789701e+00
 1.34166485e+00
 1.36688926e+00
 1.39320124e+00
 1.42022202e+00
 1.44756861e+00
 1.47485704e+00
 1.50170546e+00
 1.52773652e+00
 1.55257994e+00
 1.57587629e+00
 1.59727816e+00
 1.61645287e+00
 1.63308510e+00
 1.64687961e+00
 1.65756402e+00
 1.66489047e+00
 1.66863928e+00
 1.66862134e+00
 1.66468000e+00
 1.65669399e+00
 1.64457944e+00
 1.62829116e+00
 1.60782494e+00
 1.58321872e+00
 1.55455231e+00
 1.52194880e+00
 1.48557430e+00
 1.44563539e+00
 1.40238079e+00
 1.35609860e+00
 1.30711440e+00
 1.25578935e+00
 1.20251781e+00
 1.14772675e+00
 1.09187289e+00
 1.03544186e+00
 9.78948530e-01
 9.70423156e-01
 1.02790830e+00
 1.08525191e+00
 1.14196059e+00
 1.19756466e+00
 1.25161821e+00
 1.30370203e+00
 1.35342404e+00
 1.40042240e+00
 1.44436835e+00
 1.48496813e+00
 1.52196547e+00
 1.55514361e+00
 1.58432680e+00
 1.60938186e+00
 1.63021732e+00
 1.64678585e+00
 1.65908128e+00
 1.66713981e+00
 1.67103713e+00
 1.67088808e+00
 1.66684325e+00
 1.65908772e+00
 1.64783870e+00
 1.63334232e+00
 1.61587207e+00
 1.59572532e+00
 1.57322124e+00
 1.54869877e+00
 1.52251341e+00
 1.49503566e+00
 1.46664897e+00
 1.43774549e+00
 1.40872674e+00
 1.37999823e+00
 1.35196787e+00
 1.32504177e+00
 1.29962021e+00
 1.27609063e+00
 1.25482559e+00
 1.23617036e+00
 1.22043803e+00
 1.20790101e+00
 1.19878162e+00
 1.19324500e+00
 1.19139475e+00
 1.19326441e+00
 1.19882187e+00
 1.20796641e+00
 1.22053457e+00
 1.23630566e+00
 1.25500954e+00
 1.27633317e+00
 1.29993295e+00
 1.32543839e+00
 1.35246186e+00
 1.38060383e+00
 1.40945842e+00
 1.43861776e+00
 1.46767591e+00
 1.49623133e+00
 1.52389094e+00
 1.55027040e+00
 1.57499853e+00
 1.59771857e+00
 1.61809106e+00
 1.63579508e+00
 1.65053251e+00
 1.66202900e+00
 1.67003782e+00
 1.67434045e+00
 1.67475194e+00
 1.67112076e+00
 1.66333170e+00
 1.65130841e+00
 1.63501480e+00
 1.61445579e+00
 1.58967882e+00
 1.56077378e+00
 1.52787330e+00
 1.49115248e+00
 1.45082583e+00
 1.40714853e+00
 1.36041258e+00
 1.31094573e+00
 1.25910783e+00
 1.20528863e+00
 1.14990646e+00
 1.09340591e+00
 1.03625556e+00
 9.78948590e-01
 9.70423111e-01
 1.02863694e+00
 1.08662727e+00
 1.14392129e+00
 1.20006575e+00
 1.25462741e+00
 1.30719469e+00
 1.35738060e+00
 1.40482421e+00
 1.44919566e+00
 1.49019688e+00
 1.52756599e+00
 1.56107855e+00
 1.59055054e+00
 1.61583938e+00
 1.63684404e+00
 1.65350804e+00
 1.66581594e+00
 1.67379554e+00
 1.67751566e+00
 1.67708386e+00
 1.67264569e+00
 1.66438312e+00
 1.65251010e+00
 1.63727219e+00
 1.61894348e+00
 1.59782362e+00
 1.57423555e+00
 1.54852403e+00
 1.52105235e+00
 1.49219994e+00
 1.46236185e+00
 1.43194449e+00
 1.40136542e+00
 1.37104899e+00
 1.34142520e+00
 1.31292356e+00
 1.28597169e+00
 1.26098717e+00
 1.23837172e+00
 1.21850279e+00
 1.20172497e+00
 1.18833845e+00
 1.17859054e+00
 1.17266584e+00
 1.17067939e+00
 1.17267048e+00
 1.17860211e+00
 1.18836200e+00
 1.20176710e+00
 1.21857281e+00
 1.23848044e+00
 1.26114628e+00
 1.28619493e+00
 1.31322575e+00
 1.34182121e+00
 1.37155486e+00
 1.40199691e+00
 1.43271711e+00
 1.46329100e+00
 1.49330089e+00
 1.52233920e+00
 1.55001005e+00
 1.57593317e+00
 1.59974401e+00
 1.62109713e+00
 1.63966856e+00
 1.65515678e+00
 1.66728758e+00
 1.67581429e+00
 1.68052171e+00
 1.68122777e+00
 1.67778608e+00
 1.67008814e+00
 1.65806446e+00
 1.64168711e+00
 1.62097001e+00
 1.59596951e+00
 1.56678482e+00
 1.53355721e+00
 1.49647004e+00
 1.45574524e+00
 1.41164365e+00
 1.36446059e+00
 1.31452534e+00
 1.26219639e+00
 1.20785874e+00
 1.15192293e+00
 1.09482060e+00
 1.03700499e+00
 9.78948572e-01
 9.70423059e-01
 1.02930041e+00
 1.08788245e+00
 1.14571581e+00
 1.20236234e+00
 1.25740047e+00
 1.31042692e+00
 1.36105915e+00
 1.40893839e+00
 1.45373328e+00
 1.49514257e+00
 1.53289963e+00
 1.56677368e+00
 1.59657256e+00
 1.62214581e+00
 1.64338438e+00
 1.66022287e+00
 1.67263771e+00
 1.68064954e+00
 1.68431960e+00
 1.68374996e+00
 1.67908165e+00
 1.67049180e+00
 1.65819336e+00
 1.64242995e+00
 1.62347571e+00
 1.60163196e+00
 1.57722473e+00
 1.55060355e+00
 1.52213644e+00
 1.49221121e+00
 1.46123168e+00
 1.42961558e+00
 1.39779366e+00
 1.36620551e+00
 1.33529836e+00
 1.30552300e+00
 1.27732820e+00
 1.25115613e+00
 1.22743486e+00
 1.20656924e+00
 1.18892872e+00
 1.17483950e+00
 1.16457004e+00
 1.15832285e+00
 1.15622258e+00
 1.15831291e+00
 1.16455278e+00
 1.17482033e+00
 1.18891596e+00
 1.20657304e+00
 1.22746748e+00
 1.25123132e+00
 1.27746146e+00
 1.30573033e+00
 1.33559618e+00
 1.36661130e+00
 1.39832441e+00
 1.43028852e+00
 1.46206326e+00
 1.49321749e+00
 1.52333290e+00
 1.55200429e+00
 1.57884368e+00
 1.60348089e+00
 1.62556585e+00
 1.64477150e+00
 1.66079518e+00
 1.67336217e+00
 1.68222711e+00
 1.68717693e+00
 1.68803303e+00
 1.68465383e+00
 1.67693634e+00
 1.66481829e+00
 1.64827818e+00
 1.62733850e+00
 1.60206331e+00
 1.57256038e+00
 1.53897870e+00
 1.50150880e+00
 1.46037885e+00
 1.41585427e+00
 1.36823357e+00
 1.31784668e+00
 1.26505073e+00
 1.21022555e+00
 1.15377364e+00
 1.09611586e+00
 1.03768950e+00
 9.78948559e-01
 9.70423199e-01
 1.02989826e+00
 1.08901654e+00
 1.14734199e+00
 1.20445116e+00
 1.25993323e+00
 1.31339250e+00
 1.36445138e+00
 1.41275269e+00
 1.45796517e+00
 1.49978546e+00
 1.53794257e+00
 1.57220035e+00
 1.60236088e+00
 1.62826630e+00
 1.64980079e+00
 1.66689113e+00
 1.67950726e+00
 1.68766291e+00
 1.69141384e+00
 1.69085669e+00
 1.68612825e+00
 1.67740275e+00
 1.66489025e+00
 1.64883384e+00
 1.62950729e+00
 1.60721338e+00
 1.58227978e+00
 1.55505888e+00
 1.52592406e+00
 1.49526814e+00
 1.46350224e+00
 1.43105232e+00
 1.39835811e+00
 1.36587167e+00
 1.33405279e+00
 1.30336671e+00
 1.27428016e+00
 1.24725258e+00
 1.22273158e+00
 1.20114219e+00
 1.18287428e+00
 1.16827219e+00
 1.15762150e+00
 1.15113662e+00
 1.14895191e+00
 1.15111228e+00
 1.15757601e+00
 1.16821196e+00
 1.18280820e+00
 1.20108184e+00
 1.22269123e+00
 1.24724677e+00
 1.27432597e+00
 1.30348198e+00
 1.33425531e+00
 1.36618034e+00
 1.39879155e+00
 1.43162863e+00
 1.46423942e+00
 1.49618343e+00
 1.52703374e+00
 1.55637828e+00
 1.58382335e+00
 1.60899452e+00
 1.63153827e+00
 1.65112532e+00
 1.66745237e+00
 1.68024394e+00
 1.68925628e+00
 1.69427818e+00
 1.69513437e+00
 1.69168726e+00
 1.68383868e+00
 1.67153146e+00
 1.65475135e+00
 1.63352669e+00
 1.60792940e+00
 1.57807318e+00
 1.54411445e+00
 1.50624905e+00
 1.46471058e+00
 1.41976803e+00
 1.37172249e+00
 1.32090366e+00
 1.26766610e+00
 1.21238579e+00
 1.15545708e+00
 1.09729009e+00
 1.03830843e+00
 9.78948533e-01
 9.70423165e-01
 1.03042952e+00
 1.09002775e+00
 1.14879799e+00
 1.20632928e+00
 1.26222095e+00
 1.31608462e+00
 1.36754704e+00
 1.41625429e+00
 1.46187504e+00
 1.50410446e+00
 1.54266883e+00
 1.57732830e+00
 1.60787980e+00
 1.63416045e+00
 1.65604805e+00
 1.67346416e+00
 1.68637280e+00
 1.69478257e+00
 1.69874426e+00
 1.69835072e+00
 1.69373509e+00
 1.68506904e+00
 1.67256105e+00
 1.65645296e+00
 1.63701888e+00
 1.61456145e+00
 1.58941081e+00
 1.56192146e+00
 1.53246890e+00
 1.50145107e+00
 1.46928313e+00
 1.43639635e+00
 1.40323741e+00
 1.37026508e+00
 1.33794758e+00
 1.30675941e+00
 1.27717687e+00
 1.24967113e+00
 1.22470140e+00
 1.20270372e+00
 1.18408082e+00
 1.16918785e+00
 1.15831932e+00
 1.15169864e+00
 1.14946303e+00
 1.15166120e+00
 1.15824819e+00
 1.16908981e+00
 1.18396607e+00
 1.20258478e+00
 1.22459339e+00
 1.24959060e+00
 1.27714219e+00
 1.30678959e+00
 1.33806209e+00
 1.37048414e+00
 1.40358082e+00
 1.43688347e+00
 1.46993325e+00
 1.50228234e+00
 1.53349914e+00
 1.56316610e+00
 1.59088655e+00
 1.61628195e+00
 1.63899745e+00
 1.65870158e+00
 1.67509027e+00
 1.68788834e+00
 1.69685298e+00
 1.70177429e+00
 1.70247953e+00
 1.69883412e+00
 1.69074405e+00
 1.67815671e+00
 1.66106266e+00
 1.63949548e+00
 1.61353264e+00
 1.58329348e+00
 1.54893907e+00
 1.51067047e+00
 1.46872438e+00
 1.42337299e+00
 1.37491816e+00
 1.32368911e+00
 1.27003830e+00
 1.21433634e+00
 1.15697079e+00
 1.09834204e+00
 1.03886090e+00
 9.78948569e-01
 9.70423128e-01
 1.03089366e+00
 1.09091552e+00
 1.15008213e+00
 1.20799409e+00
 1.26425940e+00
 1.31849659e+00
 1.37033749e+00
 1.41943043e+00
 1.46544567e+00
 1.50807773e+00
 1.54705172e+00
 1.58212500e+00
 1.61309106e+00
 1.63978325e+00
 1.66207528e+00
 1.67988463e+00
 1.69317124e+00
 1.70193967e+00
 1.70623756e+00
 1.70615450e+00
 1.70182127e+00
 1.69340798e+00
 1.68112177e+00
 1.66520378e+00
 1.64592827e+00
 1.62359832e+00
 1.59854471e+00
 1.57112342e+00
 1.54171251e+00
 1.51071112e+00
 1.47853728e+00
 1.44562509e+00
 1.41242376e+00
 1.37939513e+00
 1.34701082e+00
 1.31574885e+00
 1.28608796e+00
 1.25850325e+00
 1.23345651e+00
 1.21138675e+00
 1.19269963e+00
 1.17775279e+00
 1.16684319e+00
 1.16019405e+00
 1.15794522e+00
 1.16014554e+00
 1.16675006e+00
 1.17762254e+00
 1.19254276e+00
 1.21121708e+00
 1.23328990e+00
 1.25835791e+00
 1.28598309e+00
 1.31570471e+00
 1.34704848e+00
 1.37953572e+00
 1.41268823e+00
 1.44603379e+00
 1.47911072e+00
 1.51146892e+00
 1.54267305e+00
 1.57230402e+00
 1.59996247e+00
 1.62526799e+00
 1.64786430e+00
 1.66741930e+00
 1.68362805e+00
 1.69621551e+00
 1.70493886e+00
 1.70958991e+00
 1.70999689e+00
 1.70602797e+00
 1.69759152e+00
 1.68463836e+00
 1.66716229e+00
 1.64520093e+00
 1.61883523e+00
 1.58818895e+00
 1.55342615e+00
 1.51475149e+00
 1.47240369e+00
 1.42665627e+00
 1.37781129e+00
 1.32619698e+00
 1.27216275e+00
 1.21607462e+00
 1.15831359e+00
 1.09927073e+00
 1.03934657e+00
 9.78948651e-01
 9.70423197e-01
 1.03129021e+00
 1.09167841e+00
 1.15119284e+00
 1.20944272e+00
 1.26604440e+00
 1.32062254e+00
 1.37281335e+00
 1.42226859e+00
 1.46866030e+00
 1.51168360e+00
 1.55106334e+00
 1.58655570e+00
 1.61795271e+00
 1.64508527e+00
 1.66782518e+00
 1.68608685e+00
 1.69982807e+00
 1.70905112e+00
 1.71380135e+00
 1.71416702e+00
 1.71027736e+00
 1.70230141e+00
 1.69044576e+00
 1.67495140e+00
 1.65609210e+00
 1.63417199e+00
 1.60952226e+00
 1.58249871e+00
 1.55348062e+00
 1.52286726e+00
 1.49107704e+00
 1.45854387e+00
 1.42571636e+00
 1.39305537e+00
 1.36103054e+00
 1.33011637e+00
 1.30078928e+00
 1.27351887e+00
 1.24876247e+00
 1.22695256e+00
 1.20848853e+00
 1.19372187e+00
 1.18294420e+00
 1.17637481e+00
 1.17414991e+00
 1.17631795e+00
 1.18283386e+00
 1.19356621e+00
 1.20829860e+00
 1.22674256e+00
 1.24854922e+00
 1.27332169e+00
 1.30062781e+00
 1.33001216e+00
 1.36100561e+00
 1.39313194e+00
 1.42591629e+00
 1.45888903e+00
 1.49158864e+00
 1.52356581e+00
 1.55438555e+00
 1.58362866e+00